<?xml version="1.0"?>
<VTKFile type="PolyData" version="0.1" byte_order="LittleEndian" header_type="UInt32">
  <PolyData>
    <Piece NumberOfPoints="60" NumberOfVerts="0" NumberOfLines="1" NumberOfStrips="0" NumberOfPolys="0">
      <PointData Normals="Normals">
        <DataArray type="Float32" Name="Normals" NumberOfComponents="3" format="ascii" RangeMin="0.99306329813" RangeMax="0.99853344291">
          0.99853342772 0 0 0.98762321472 0.10380338877 0
          0.97671306133 0.20760677755 0 0.94445931911 0.30687344074 0
          0.9122056365 0.40614011884 0 0.86001807451 0.49653166533 0
          0.80783051252 0.58692324162 0 0.7379899025 0.66448909044 0
          0.66814929247 0.74205493927 0 0.58370798826 0.80340516567 0
          0.49926671386 0.86475533247 0 0.40391525626 0.9072085619 0
          0.30856379867 0.94966173172 0 0.20646947622 0.97136253119 0
          0.10437516123 0.99306333065 0 0 0.99306333065 0
          -0.10437516123 0.99306333065 0 -0.20646947622 0.97136253119 0
          -0.30856379867 0.94966173172 0 -0.40391525626 0.9072085619 0
          -0.49926671386 0.86475533247 0 -0.58370798826 0.80340516567 0
          -0.66814929247 0.74205493927 0 -0.7379899025 0.66448909044 0
          -0.80783051252 0.58692324162 0 -0.86001807451 0.49653166533 0
          -0.9122056365 0.40614011884 0 -0.94445931911 0.30687344074 0
          -0.97671306133 0.20760677755 0 -0.98762321472 0.10380338877 0
          -0.99853342772 1.2228507457e-16 0 -0.98762321472 -0.10380338877 0
          -0.97671306133 -0.20760677755 0 -0.94445931911 -0.30687344074 0
          -0.9122056365 -0.40614011884 0 -0.86001807451 -0.49653166533 0
          -0.80783051252 -0.58692324162 0 -0.7379899025 -0.66448909044 0
          -0.66814929247 -0.74205493927 0 -0.58370798826 -0.80340516567 0
          -0.49926671386 -0.86475533247 0 -0.40391525626 -0.9072085619 0
          -0.30856379867 -0.94966173172 0 -0.20646947622 -0.97136253119 0
          -0.10437516123 -0.99306333065 0 0 -0.99306333065 0
          0.10437516123 -0.99306333065 0 0.20646947622 -0.97136253119 0
          0.30856379867 -0.94966173172 0 0.40391525626 -0.9072085619 0
          0.49926671386 -0.86475533247 0 0.58370798826 -0.80340516567 0
          0.66814929247 -0.74205493927 0 0.7379899025 -0.66448909044 0
          0.80783051252 -0.58692324162 0 0.86001807451 -0.49653166533 0
          0.9122056365 -0.40614011884 0 0.94445931911 -0.30687344074 0
          0.97671306133 -0.20760677755 0 0.98762321472 -0.10380338877 0
        </DataArray>
      </PointData>
      <CellData>
      </CellData>
      <Points>
        <DataArray type="Float32" Name="Points" NumberOfComponents="3" format="ascii" RangeMin="36.640153464" RangeMax="76.51897899">
          59.970668793 40 0 59.752464294 42.076065063 0
          59.534259796 44.152133942 0 58.889186859 46.137466431 0
          58.244113922 48.122802734 0 57.200363159 49.930633545 0
          56.156608582 51.738464355 0 54.759796143 53.289779663 0
          53.362983704 54.841098785 0 51.674156189 56.068099976 0
          49.985332489 57.29510498 0 48.078304291 58.144168854 0
          46.171276093 58.993232727 0 44.129386902 59.427249908 0
          42.087501526 59.86126709 0 40 59.86126709 0
          37.912498474 59.86126709 0 35.870613098 59.427249908 0
          33.828723907 58.993232727 0 31.921695709 58.144168854 0
          30.014665604 57.29510498 0 28.325839996 56.068099976 0
          26.637014389 54.841098785 0 25.24020195 53.289779663 0
          23.843389511 51.738464355 0 22.799636841 49.930633545 0
          21.755886078 48.122802734 0 21.110813141 46.137466431 0
          20.465738297 44.152133942 0 20.247535706 42.076065063 0
          20.029331207 40 0 20.247535706 37.923934937 0
          20.465738297 35.847866058 0 21.110813141 33.862533569 0
          21.755886078 31.877197266 0 22.799636841 30.069366455 0
          23.843389511 28.261535645 0 25.24020195 26.71021843 0
          26.637014389 25.158901215 0 28.325839996 23.93189621 0
          30.014665604 22.704893112 0 31.921695709 21.855829239 0
          33.828723907 21.006765366 0 35.870613098 20.572750092 0
          37.912498474 20.13873291 0 40 20.13873291 0
          42.087501526 20.13873291 0 44.129386902 20.572750092 0
          46.171276093 21.006765366 0 48.078304291 21.855829239 0
          49.985332489 22.704893112 0 51.674156189 23.93189621 0
          53.362983704 25.158901215 0 54.759796143 26.71021843 0
          56.156608582 28.261535645 0 57.200363159 30.069366455 0
          58.244113922 31.877197266 0 58.889186859 33.862533569 0
          59.534259796 35.847866058 0 59.752464294 37.923934937 0
        </DataArray>
      </Points>
      <Verts>
        <DataArray type="Int64" Name="connectivity" format="ascii" RangeMin="1e+299" RangeMax="-1e+299">
        </DataArray>
        <DataArray type="Int64" Name="offsets" format="ascii" RangeMin="1e+299" RangeMax="-1e+299">
        </DataArray>
      </Verts>
      <Lines>
        <DataArray type="Int64" Name="connectivity" format="ascii" RangeMin="0" RangeMax="59">
          0 1 2 3 4 5
          6 7 8 9 10 11
          12 13 14 15 16 17
          18 19 20 21 22 23
          24 25 26 27 28 29
          30 31 32 33 34 35
          36 37 38 39 40 41
          42 43 44 45 46 47
          48 49 50 51 52 53
          54 55 56 57 58 59
          0
        </DataArray>
        <DataArray type="Int64" Name="offsets" format="ascii" RangeMin="61" RangeMax="61">
          61
        </DataArray>
      </Lines>
      <Strips>
        <DataArray type="Int64" Name="connectivity" format="ascii" RangeMin="0" RangeMax="59">
        </DataArray>
        <DataArray type="Int64" Name="offsets" format="ascii" RangeMin="61" RangeMax="61">
        </DataArray>
      </Strips>
      <Polys>
        <DataArray type="Int64" Name="connectivity" format="ascii" RangeMin="0" RangeMax="59">
        </DataArray>
        <DataArray type="Int64" Name="offsets" format="ascii" RangeMin="61" RangeMax="61">
        </DataArray>
      </Polys>
    </Piece>
  </PolyData>
</VTKFile>
